 Gaussian 16, Revision C.01,
 Gaussian 16:  ES64L-G16RevC.01  3-Jul-2019

 ---------------------------------------------------------------------
 # wb97xd/6-311g(d) pop=(nbo6read,savenbos) scrf=(solvent=toluene,smd)
 ---------------------------------------------------------------------

 -----------
 ar64_Br_NBO
 -----------
 Symbolic Z-matrix:
 Charge =  0 Multiplicity = 1

                         Standard orientation:
 ---------------------------------------------------------------------
 Center     Atomic      Atomic             Coordinates (Angstroms)
 Number     Number       Type             X           Y           Z
 ---------------------------------------------------------------------
      1         35           0       -2.090421   -0.262848    0.000353
      2          6           0       -0.243160    0.211049    0.000391
      3          6           0        0.113748    1.550998    0.005871
      4          6           0        1.466242    1.873517    0.002227
      5          6           0        2.430919    0.875815   -0.006582
      6          6           0        2.067264   -0.472308   -0.010567
      7          6           0        3.115428   -1.551206    0.008009
      8          6           0        0.711598   -0.796828   -0.008337
      9          1           0       -0.641094    2.328114    0.009971
     10          1           0        1.764317    2.916654    0.002638
     11          1           0        3.483018    1.143749   -0.012574
     12          1           0        3.532701   -1.669117    1.014775
     13          1           0        2.704055   -2.518172   -0.295510
     14          1           0        3.945507   -1.310552   -0.663777
     15          1           0        0.404011   -1.837215   -0.013935
 ---------------------------------------------------------------------

 SCF Done:  E(RwB97XD) =  -2845.10802379     A.U. after   13 cycles

 The electronic state is 1-A.
 Alpha  occ. eigenvalues -- -483.10134 -62.65263 -56.44818 -56.44441 -56.44432
 Alpha  occ. eigenvalues --  -10.34568 -10.30534 -10.29597 -10.29516 -10.29502
 Alpha  occ. eigenvalues --  -10.28911 -10.27950  -8.81164  -6.63478  -6.62183
 Alpha  occ. eigenvalues --   -6.62166  -2.73492  -2.73117  -2.73107  -2.72066
 Alpha  occ. eigenvalues --   -2.72065  -0.98217  -0.91122  -0.87671  -0.82781
 Alpha  occ. eigenvalues --   -0.79104  -0.70534  -0.67854  -0.60743  -0.56685
 Alpha  occ. eigenvalues --   -0.53992  -0.51367  -0.50743  -0.50067  -0.47454
 Alpha  occ. eigenvalues --   -0.46774  -0.43593  -0.42750  -0.39506  -0.37159
 Alpha  occ. eigenvalues --   -0.33359  -0.31754
 Alpha virt. eigenvalues --    0.05056   0.05516   0.07305   0.13233   0.15034
 Alpha virt. eigenvalues --    0.17321   0.18394   0.19173   0.20653   0.22175
 Alpha virt. eigenvalues --    0.24266   0.27670   0.31902   0.32430   0.34667

 Mulliken charges:
               1
     1  Br  -0.040327
     2  C   -0.133206
     3  C   -0.184842
     4  C   -0.220911
     5  C   -0.223642
     6  C    0.042459
     7  C   -0.709128
     8  C   -0.201447
     9  H    0.242517
    10  H    0.230881
    11  H    0.224444
    12  H    0.248856
    13  H    0.240511
    14  H    0.241832
    15  H    0.242003
 Sum of Mulliken charges =  -0.00000

 Dipole moment (field-independent basis, Debye):
    X=              2.5188    Y=              0.2196    Z=              0.0308  Tot=              2.5285
 Quadrupole moment (field-independent basis, Debye-Ang):
   XX=            -54.2739   YY=            -53.2874   ZZ=            -63.6474
   XY=             -0.7278   XZ=              0.0660   YZ=             -0.0082

 Summary of Natural Population Analysis:

                                     Natural Population
             Natural    ---------------------------------------------
  Atom No    Charge        Core      Valence    Rydberg      Total
 --------------------------------------------------------------------
   Br  1    0.03987     27.99995     6.94041    0.01978    34.96013
    C  2   -0.07746      1.99999     4.05632    0.02115     6.07746
    C  3   -0.24698      1.99999     4.22685    0.02014     6.24698
    C  4   -0.18143      1.99999     4.16542    0.01603     6.18143
    C  5   -0.21489      1.99999     4.19826    0.01664     6.21489
    C  6   -0.00085      1.99999     3.98735    0.01351     6.00085
    C  7   -0.59665      1.99999     4.58424    0.01242     6.59665
    C  8   -0.24630      1.99999     4.22590    0.02041     6.24630
    H  9    0.22719      0.00000     0.77109    0.00172     0.77281
    H 10    0.21691      0.00000     0.78184    0.00126     0.78309
    H 11    0.21333      0.00000     0.78507    0.00159     0.78667
    H 12    0.21811      0.00000     0.78062    0.00127     0.78189
    H 13    0.21020      0.00000     0.78866    0.00114     0.78980
    H 14    0.21373      0.00000     0.78507    0.00120     0.78627
    H 15    0.22523      0.00000     0.77266    0.00211     0.77477
 ====================================================================
 * Total *  0.00000     41.99988    41.84976    0.15036    84.00000

 Normal termination of Gaussian 16 at Wed May  4 21:54:44 2022.
