 Gaussian 16, Revision C.01,
 Gaussian 16:  ES64L-G16RevC.01  3-Jul-2019

 ---------------------------------------------------------------------
 # wb97xd/6-311g(d) pop=(nbo6read,savenbos) scrf=(solvent=toluene,smd)
 ---------------------------------------------------------------------

 --------
 am07_NBO
 --------
 Symbolic Z-matrix:
 Charge =  0 Multiplicity = 1

                         Standard orientation:
 ---------------------------------------------------------------------
 Center     Atomic      Atomic             Coordinates (Angstroms)
 Number     Number       Type             X           Y           Z
 ---------------------------------------------------------------------
      1          7           0       -1.757791   -0.609892   -0.065956
      2          6           0       -0.437869   -0.282213   -0.026696
      3          6           0        0.013089    1.047766   -0.024290
      4          6           0        1.376923    1.292706   -0.003811
      5          6           0        1.883764   -0.910420    0.019635
      6          6           0        0.554611   -1.279934   -0.002050
      7          1           0       -0.679644    1.880496   -0.038742
      8          1           0        1.730151    2.321623   -0.003034
      9          1           0        2.652468   -1.679570    0.039437
     10          1           0        0.280221   -2.330544   -0.002465
     11          1           0       -1.992532   -1.576570    0.078529
     12          6           0       -2.822014    0.357764    0.045528
     13          1           0       -3.776003   -0.168213    0.015967
     14          1           0       -2.772669    0.927953    0.981688
     15          1           0       -2.805298    1.064141   -0.790402
     16          7           0        2.322402    0.353702    0.018689
 ---------------------------------------------------------------------

 SCF Done:  E(RwB97XD) =  -342.915136591     A.U. after   13 cycles

 The electronic state is 1-A.
 Alpha  occ. eigenvalues --  -14.44825 -14.40434 -10.33988 -10.31225 -10.30885
 Alpha  occ. eigenvalues --  -10.30832 -10.27872 -10.27704  -1.05384  -1.02653
 Alpha  occ. eigenvalues --   -0.88589  -0.85411  -0.79513  -0.72452  -0.69822
 Alpha  occ. eigenvalues --   -0.63539  -0.59303  -0.55487  -0.53852  -0.53245
 Alpha  occ. eigenvalues --   -0.52028  -0.50482  -0.48189  -0.47618  -0.43116
 Alpha  occ. eigenvalues --   -0.40744  -0.33440  -0.33272  -0.28847
 Alpha virt. eigenvalues --    0.06514   0.07189   0.12502   0.14002   0.15182
 Alpha virt. eigenvalues --    0.17932   0.19187   0.20201   0.22048   0.22773
 Alpha virt. eigenvalues --    0.24160   0.26543   0.28332   0.35137   0.36505

 Mulliken charges:
               1
     1  N   -0.676866
     2  C    0.458720
     3  C   -0.390214
     4  C   -0.052160
     5  C   -0.056469
     6  C   -0.391997
     7  H    0.236407
     8  H    0.222264
     9  H    0.222052
    10  H    0.223108
    11  H    0.375752
    12  C   -0.535037
    13  H    0.241973
    14  H    0.234724
    15  H    0.240728
    16  N   -0.352985
 Sum of Mulliken charges =  -0.00000

 Dipole moment (field-independent basis, Debye):
    X=             -5.2001    Y=             -1.2857    Z=              0.3024  Tot=              5.3652
 Quadrupole moment (field-independent basis, Debye-Ang):
   XX=            -48.0677   YY=            -39.6433   ZZ=            -51.2152
   XY=             -0.8526   XZ=             -0.7281   YZ=             -0.5599

 Summary of Natural Population Analysis:

                                     Natural Population
             Natural    ---------------------------------------------
  Atom No    Charge        Core      Valence    Rydberg      Total
 --------------------------------------------------------------------
    N  1   -0.60228      1.99999     5.58921    0.01309     7.60228
    C  2    0.22893      1.99999     3.75226    0.01882     5.77107
    C  3   -0.34165      1.99999     4.32708    0.01458     6.34165
    C  4    0.08103      1.99999     3.89237    0.02661     5.91897
    C  5    0.07091      1.99999     3.90274    0.02636     5.92909
    C  6   -0.31685      1.99999     4.30134    0.01552     6.31685
    H  7    0.22047      0.00000     0.77805    0.00148     0.77953
    H  8    0.18650      0.00000     0.81218    0.00132     0.81350
    H  9    0.18754      0.00000     0.81119    0.00127     0.81246
    H 10    0.21359      0.00000     0.78446    0.00195     0.78641
    H 11    0.39342      0.00000     0.60447    0.00211     0.60658
    C 12   -0.36474      1.99999     4.34847    0.01628     6.36474
    H 13    0.20481      0.00000     0.79443    0.00076     0.79519
    H 14    0.18396      0.00000     0.81422    0.00182     0.81604
    H 15    0.19099      0.00000     0.80755    0.00146     0.80901
    N 16   -0.53661      1.99999     5.51786    0.01876     7.53661
 ====================================================================
 * Total *  0.00000     15.99992    41.83789    0.16219    58.00000

 Normal termination of Gaussian 16 at Wed May  4 21:38:31 2022.
