 Gaussian 16, Revision C.01,
 Gaussian 16:  AS64L-G16RevC.01  3-Jul-2019

 ---------------------------------------------------------------------
 # wb97xd/6-311g(d) pop=(nbo6read,savenbos) scrf=(solvent=toluene,smd)
 ---------------------------------------------------------------------

 ----------
 am52_a_NBO
 ----------
 Symbolic Z-matrix:
 Charge =  0 Multiplicity = 1

                         Standard orientation:
 ---------------------------------------------------------------------
 Center     Atomic      Atomic             Coordinates (Angstroms)
 Number     Number       Type             X           Y           Z
 ---------------------------------------------------------------------
      1          8           0        2.339059    0.032322    0.031829
      2          6           0        1.120964    0.027501    0.008216
      3          7           0        0.387305    1.167518   -0.002824
      4          6           0       -1.058638    1.252551   -0.146270
      5          6           0       -1.695192   -0.043698    0.316851
      6          7           0       -1.036046   -1.135044   -0.381602
      7          6           0        0.341334   -1.276186    0.065888
      8          1           0        0.926090    2.016728   -0.081282
      9          1           0       -1.325575    1.434961   -1.193271
     10          1           0       -1.421526    2.091419    0.453252
     11          1           0       -1.607920   -0.126254    1.414655
     12          1           0       -2.756811   -0.036235    0.061478
     13          1           0        0.425169   -1.631720    1.108123
     14          1           0        0.869801   -1.991642   -0.565626
     15          1           0       -1.531321   -2.004166   -0.229093
 ---------------------------------------------------------------------

 SCF Done:  E(RwB97XD) =  -341.954701548     A.U. after   13 cycles

 The electronic state is 1-A.
 Alpha  occ. eigenvalues --  -19.19184 -14.44597 -14.41788 -10.37598 -10.31765
 Alpha  occ. eigenvalues --  -10.31002 -10.30727  -1.13220  -1.04043  -0.99496
 Alpha  occ. eigenvalues --   -0.85660  -0.78483  -0.73323  -0.64940  -0.60073
 Alpha  occ. eigenvalues --   -0.57817  -0.56589  -0.54140  -0.53136  -0.49570
 Alpha  occ. eigenvalues --   -0.48782  -0.45430  -0.44088  -0.43033  -0.33639
 Alpha  occ. eigenvalues --   -0.32689  -0.31017
 Alpha virt. eigenvalues --    0.10323   0.12331   0.14864   0.16170   0.16556
 Alpha virt. eigenvalues --    0.18336   0.20173   0.21367   0.22084   0.26551
 Alpha virt. eigenvalues --    0.26762   0.28392   0.32641   0.33441   0.36514

 Mulliken charges:
               1
     1  O   -0.407981
     2  C    0.457685
     3  N   -0.604051
     4  C   -0.224916
     5  C   -0.352251
     6  N   -0.561405
     7  C   -0.398436
     8  H    0.365979
     9  H    0.230515
    10  H    0.231874
    11  H    0.205873
    12  H    0.236530
    13  H    0.228326
    14  H    0.253450
    15  H    0.338809
 Sum of Mulliken charges =  -0.00000

 Dipole moment (field-independent basis, Debye):
    X=             -4.6581    Y=              0.5660    Z=              0.8438  Tot=              4.7677
 Quadrupole moment (field-independent basis, Debye-Ang):
   XX=            -49.5770   YY=            -33.4948   ZZ=            -43.4897
   XY=              0.9376   XZ=             -1.6254   YZ=             -1.4081

 Summary of Natural Population Analysis:

                                     Natural Population
             Natural    ---------------------------------------------
  Atom No    Charge        Core      Valence    Rydberg      Total
 --------------------------------------------------------------------
    O  1   -0.66847      1.99999     6.65773    0.01075     8.66847
    C  2    0.70802      1.99999     3.24839    0.04359     5.29198
    N  3   -0.64365      1.99999     5.63047    0.01319     7.64365
    C  4   -0.17338      1.99999     4.15445    0.01893     6.17338
    C  5   -0.18855      1.99999     4.16901    0.01954     6.18855
    N  6   -0.68712      1.99999     5.67020    0.01693     7.68712
    C  7   -0.27127      1.99999     4.24976    0.02153     6.27127
    H  8    0.40198      0.00000     0.59473    0.00329     0.59802
    H  9    0.18667      0.00000     0.81014    0.00319     0.81333
    H 10    0.19707      0.00000     0.80116    0.00177     0.80293
    H 11    0.16291      0.00000     0.83300    0.00409     0.83709
    H 12    0.20508      0.00000     0.79356    0.00136     0.79492
    H 13    0.18688      0.00000     0.80982    0.00330     0.81312
    H 14    0.21893      0.00000     0.77888    0.00219     0.78107
    H 15    0.36490      0.00000     0.63363    0.00148     0.63510
 ====================================================================
 * Total *  0.00000     13.99995    39.83493    0.16513    54.00000

 1\1\GINC-NODE07\SP\RwB97XD\6-311G(d)\C4H8N2O1\LILIANAC\08-Nov-2022\0\\
 # wb97xd/6-311g(d) pop=(nbo6read,savenbos) scrf=(solvent=toluene,smd)\
 \am52_a_NBO\\0,1\O,0,2.339059,0.032321,0.031829\C,0,1.120964,0.0275,0.
 008216\N,0,0.387306,1.167518,-0.002824\C,0,-1.058637,1.252551,-0.14627
 \C,0,-1.695192,-0.043697,0.316851\N,0,-1.036047,-1.135044,-0.381602\C,
 0,0.341333,-1.276186,0.065888\H,0,0.926091,2.016727,-0.081282\H,0,-1.3
 25574,1.434961,-1.193271\H,0,-1.421525,2.091419,0.453252\H,0,-1.60792,
 -0.126253,1.414655\H,0,-2.756811,-0.036234,0.061478\H,0,0.425168,-1.63

 Normal termination of Gaussian 16 at Tue Nov  8 11:54:16 2022.
