 Gaussian 16, Revision C.01,
 Gaussian 16:  AS64L-G16RevC.01  3-Jul-2019

 --------------------------
 # nmr=GIAO mpw1pw91/genecp
 --------------------------

 ---------------
 mol5-Pd_NBO_NMR
 ---------------
 Symbolic Z-matrix:
 Charge =  0 Multiplicity = 1

                         Standard orientation:
 ---------------------------------------------------------------------
 Center     Atomic      Atomic             Coordinates (Angstroms)
 Number     Number       Type             X           Y           Z
 ---------------------------------------------------------------------
      1         15           0       -1.627933   -0.714126   -0.249100
      2         46           0        0.089107   -2.235772   -0.013457
      3         15           0        1.676885   -0.585215    0.249237
      4         17           0       -1.523564   -3.976555    0.313677
      5         17           0        1.847925   -3.821959   -0.366352
      6          6           0       -1.077088    0.740415   -1.246103
      7          6           0       -2.991992   -1.432060   -1.229029
      8          6           0       -2.340323   -0.081257    1.294799
      9          6           0       -0.247839    1.713177   -0.717272
     10          6           0       -1.382071    0.761832   -2.631588
     11          6           0       -4.330258   -1.181811   -0.938626
     12          6           0       -2.666028   -2.255543   -2.310401
     13          6           0       -3.200462    1.018351    1.300325
     14          6           0       -2.014915   -0.712993    2.493843
     15          6           0        0.113380    1.723145    0.732141
     16          6           0        0.287306    2.736686   -1.560640
     17          6           0       -0.850554    1.709854   -3.455608
     18          6           0       -5.330465   -1.733000   -1.732758
     19          6           0       -3.664978   -2.795540   -3.104274
     20          6           0       -3.730302    1.479024    2.496083
     21          6           0       -2.541986   -0.243229    3.689845
     22          6           0        1.013817    0.813459    1.256880
     23          6           0       -0.497678    2.699031    1.580235
     24          6           0        1.127075    3.768113   -1.061526
     25          6           0        0.001752    2.716708   -2.949275
     26          6           0       -5.000908   -2.532842   -2.817603
     27          6           0       -3.397224    0.851492    3.691557
     28          6           0        1.314805    0.849885    2.642838
     29          6           0       -1.410578    3.668527    1.085376
     30          6           0       -0.213455    2.692377    2.969204
     31          6           0        1.649952    4.715306   -1.898034
     32          6           0        0.570423    3.702304   -3.794704
     33          6           0        0.711537    1.749733    3.471395
     34          6           0       -2.003135    4.569688    1.926324
     35          6           0       -0.854636    3.628144    3.819335
     36          6           0        1.375473    4.681268   -3.282537
     37          6           0       -1.728796    4.548120    3.311160
     38          6           0        3.085976   -1.215037    1.226087
     39          6           0        2.343347    0.118256   -1.284538
     40          6           0        2.813908   -2.054465    2.310239
     41          6           0        4.406563   -0.896425    0.922846
     42          6           0        2.049642   -0.507309   -2.494992
     43          6           0        3.132054    1.270239   -1.271585
     44          6           0        3.846563   -2.541457    3.094809
     45          6           0        5.441433   -1.394591    1.707755
     46          6           0        2.536895    0.020242   -3.683691
     47          6           0        3.623449    1.788175   -2.460245
     48          6           0        5.164359   -2.209713    2.795737
     49          6           0        3.321384    1.166602   -3.666967
     50          1           0       -2.044674    0.017005   -3.050992
     51          1           0       -4.608495   -0.580320   -0.081986
     52          1           0       -1.628696   -2.495003   -2.520401
     53          1           0       -3.436452    1.531537    0.373701
     54          1           0       -1.352265   -1.571919    2.489153
     55          1           0       -1.085811    1.699152   -4.515232
     56          1           0       -6.370534   -1.541306   -1.491505
     57          1           0       -3.399747   -3.440343   -3.934827
     58          1           0       -4.387703    2.341225    2.496527
     59          1           0       -2.281462   -0.735496    4.620349
     60          1           0        1.362434    3.801457   -0.004951
     61          1           0       -5.783436   -2.966597   -3.431269
     62          1           0       -3.803981    1.220606    4.627095
     63          1           0        2.031770    0.155405    3.058996
     64          1           0       -1.646233    3.690495    0.028551
     65          1           0        2.288098    5.495299   -1.496279
     66          1           0        0.350753    3.667279   -4.857342
     67          1           0        0.945294    1.750463    4.531399
     68          1           0       -2.696403    5.302939    1.527828
     69          1           0       -0.633861    3.603247    4.882004
     70          1           0        1.803872    5.434037   -3.935804
     71          1           0       -2.211995    5.263949    3.967678
     72          1           0        1.792946   -2.350263    2.528036
     73          1           0        4.645275   -0.283109    0.062760
     74          1           0        1.441113   -1.405268   -2.505007
     75          1           0        3.342520    1.777794   -0.335711
     76          1           0        3.622834   -3.199628    3.927098
     77          1           0        6.467817   -1.150029    1.456058
     78          1           0        2.300356   -0.467273   -4.623069
     79          1           0        4.225489    2.689768   -2.446227
     80          1           0        5.974121   -2.602351    3.401661
     81          1           0        3.697191    1.580333   -4.596752
 ---------------------------------------------------------------------

 SCF Done:  E(RmPW1PW91) =  -3426.14853541     A.U. after   29 cycles

      1  P    Isotropic =   259.7556   Anisotropy =   113.9456

      2  Pd   Isotropic =  -178.0082   Anisotropy =   298.3669

      3  P    Isotropic =   260.0127   Anisotropy =   113.2037

      4  Cl   Isotropic =   842.3790   Anisotropy =   469.6921

      5  Cl   Isotropic =   840.2952   Anisotropy =   473.8631

      6  C    Isotropic =    47.3056   Anisotropy =   182.8510

      7  C    Isotropic =    50.8548   Anisotropy =   178.0012

      8  C    Isotropic =    58.8370   Anisotropy =   175.9160

      9  C    Isotropic =    42.6985   Anisotropy =   171.5159

     10  C    Isotropic =    53.3488   Anisotropy =   188.5253

     11  C    Isotropic =    51.3558   Anisotropy =   190.2298

     12  C    Isotropic =    41.5058   Anisotropy =   197.4480

     13  C    Isotropic =    47.7307   Anisotropy =   200.1371

     14  C    Isotropic =    42.8958   Anisotropy =   195.8394

     15  C    Isotropic =    42.8525   Anisotropy =   171.6418

     16  C    Isotropic =    49.9354   Anisotropy =   216.3312

     17  C    Isotropic =    54.0842   Anisotropy =   164.5054

     18  C    Isotropic =    56.2931   Anisotropy =   181.0372

     19  C    Isotropic =    55.6715   Anisotropy =   183.4546

     20  C    Isotropic =    56.9103   Anisotropy =   192.2745

     21  C    Isotropic =    54.9933   Anisotropy =   189.7022

     22  C    Isotropic =    47.5630   Anisotropy =   183.0092

     23  C    Isotropic =    49.8144   Anisotropy =   216.3653

     24  C    Isotropic =    54.2531   Anisotropy =   185.8307

     25  C    Isotropic =    49.4486   Anisotropy =   223.1009

     26  C    Isotropic =    52.5344   Anisotropy =   188.9401

     27  C    Isotropic =    52.9537   Anisotropy =   196.0797

     28  C    Isotropic =    53.4228   Anisotropy =   188.5064

     29  C    Isotropic =    54.3360   Anisotropy =   186.1197

     30  C    Isotropic =    49.5224   Anisotropy =   222.9644

     31  C    Isotropic =    56.8674   Anisotropy =   182.6509

     32  C    Isotropic =    53.8083   Anisotropy =   166.8225

     33  C    Isotropic =    54.0811   Anisotropy =   164.9108

     34  C    Isotropic =    56.9003   Anisotropy =   182.6324

     35  C    Isotropic =    53.7813   Anisotropy =   166.8348

     36  C    Isotropic =    55.7799   Anisotropy =   184.6103

     37  C    Isotropic =    55.8979   Anisotropy =   184.7974

     38  C    Isotropic =    50.7198   Anisotropy =   178.4531

     39  C    Isotropic =    58.7807   Anisotropy =   176.0229

     40  C    Isotropic =    41.7670   Anisotropy =   197.2823

     41  C    Isotropic =    51.3789   Anisotropy =   190.2657

     42  C    Isotropic =    42.9026   Anisotropy =   195.8985

     43  C    Isotropic =    47.6308   Anisotropy =   200.0928

     44  C    Isotropic =    55.6594   Anisotropy =   183.5304

     45  C    Isotropic =    56.2915   Anisotropy =   181.1532

     46  C    Isotropic =    55.0014   Anisotropy =   189.9700

     47  C    Isotropic =    56.7412   Anisotropy =   192.4234

     48  C    Isotropic =    52.6146   Anisotropy =   188.8979

     49  C    Isotropic =    53.0128   Anisotropy =   196.2522

     50  H    Isotropic =    23.8707   Anisotropy =    13.4441

     51  H    Isotropic =    24.4078   Anisotropy =    15.2896

     52  H    Isotropic =    22.6268   Anisotropy =    12.9999

     53  H    Isotropic =    24.5716   Anisotropy =     9.4967

     54  H    Isotropic =    22.9368   Anisotropy =     9.8835

     55  H    Isotropic =    24.2088   Anisotropy =     7.0383

     56  H    Isotropic =    24.3661   Anisotropy =     7.2590

     57  H    Isotropic =    23.8339   Anisotropy =     7.2880

     58  H    Isotropic =    25.4422   Anisotropy =     5.8249

     59  H    Isotropic =    24.5344   Anisotropy =     5.9810

     60  H    Isotropic =    24.8196   Anisotropy =    16.2316

     61  H    Isotropic =    24.0456   Anisotropy =     3.5075

     62  H    Isotropic =    24.7125   Anisotropy =     3.4834

     63  H    Isotropic =    23.8077   Anisotropy =    13.3699

     64  H    Isotropic =    24.7961   Anisotropy =    16.3391

     65  H    Isotropic =    24.4704   Anisotropy =     8.2204

     66  H    Isotropic =    24.0123   Anisotropy =     6.8488

     67  H    Isotropic =    24.2277   Anisotropy =     7.0237

     68  H    Isotropic =    24.4476   Anisotropy =     8.2666

     69  H    Isotropic =    24.0067   Anisotropy =     6.7966

     70  H    Isotropic =    24.1736   Anisotropy =     3.6405

     71  H    Isotropic =    24.1625   Anisotropy =     3.6238

     72  H    Isotropic =    22.6596   Anisotropy =    12.9167

     73  H    Isotropic =    24.3965   Anisotropy =    15.2892

     74  H    Isotropic =    22.9921   Anisotropy =     9.7197

     75  H    Isotropic =    24.5755   Anisotropy =     9.5744

     76  H    Isotropic =    23.8297   Anisotropy =     7.2851

     77  H    Isotropic =    24.3644   Anisotropy =     7.2286

     78  H    Isotropic =    24.5633   Anisotropy =     6.0006

     79  H    Isotropic =    25.4381   Anisotropy =     5.6899

     80  H    Isotropic =    24.0499   Anisotropy =     3.5259

     81  H    Isotropic =    24.7256   Anisotropy =     3.3940

 The electronic state is 1-A.
 Alpha  occ. eigenvalues -- -101.66229-101.66219 -77.29186 -77.29179 -10.28074
 Alpha  occ. eigenvalues --  -10.28043 -10.27784 -10.27783 -10.27117 -10.27110
 Alpha  occ. eigenvalues --  -10.26881 -10.26877 -10.26631 -10.26622 -10.26140
 Alpha  occ. eigenvalues --  -10.26139 -10.25887 -10.25887 -10.25873 -10.25860
 Alpha  occ. eigenvalues --  -10.25851 -10.25846 -10.25800 -10.25785 -10.25784
 Alpha  occ. eigenvalues --  -10.25784 -10.25730 -10.25711 -10.25640 -10.25623
 Alpha  occ. eigenvalues --  -10.25430 -10.25421 -10.25357 -10.25348 -10.25223
 Alpha  occ. eigenvalues --  -10.25219 -10.25005 -10.24994 -10.24925 -10.24895
 Alpha  occ. eigenvalues --  -10.24775 -10.24775 -10.24609 -10.24582 -10.24440
 Alpha  occ. eigenvalues --  -10.24414 -10.24290 -10.24282  -9.43694  -9.43682
 Alpha  occ. eigenvalues --   -7.17464  -7.17451  -7.16941  -7.16930  -7.16880
 Alpha  occ. eigenvalues --   -7.16868  -6.66267  -6.66260  -4.80158  -4.80152
 Alpha  occ. eigenvalues --   -4.80130  -4.80124  -4.79933  -4.79926  -3.40691
 Alpha  occ. eigenvalues --   -2.12652  -2.12598  -2.09624  -0.94178  -0.92342
 Alpha  occ. eigenvalues --   -0.90535  -0.90485  -0.89542  -0.89509  -0.88313
 Alpha  occ. eigenvalues --   -0.87186  -0.84401  -0.81594  -0.81589  -0.80697
 Alpha  occ. eigenvalues --   -0.78999  -0.78927  -0.78879  -0.78806  -0.78273
 Alpha  occ. eigenvalues --   -0.78139  -0.77988  -0.77970  -0.77787  -0.75647
 Alpha  occ. eigenvalues --   -0.73073  -0.72364  -0.70635  -0.69678  -0.67360
 Alpha  occ. eigenvalues --   -0.66184  -0.65514  -0.65061  -0.65013  -0.64396
 Alpha  occ. eigenvalues --   -0.64262  -0.63679  -0.63615  -0.63019  -0.62984
 Alpha  occ. eigenvalues --   -0.61234  -0.60085  -0.59743  -0.56459  -0.55476
 Alpha  occ. eigenvalues --   -0.55368  -0.54927  -0.54760  -0.53898  -0.53778
 Alpha  occ. eigenvalues --   -0.52927  -0.51716  -0.51543  -0.49078  -0.48984
 Alpha  occ. eigenvalues --   -0.48880  -0.48430  -0.48303  -0.48211  -0.48197
 Alpha  occ. eigenvalues --   -0.47747  -0.47697  -0.47128  -0.47065  -0.46663
 Alpha  occ. eigenvalues --   -0.45673  -0.45616  -0.45592  -0.45261  -0.45141
 Alpha  occ. eigenvalues --   -0.44551  -0.44446  -0.44359  -0.44004  -0.43491
 Alpha  occ. eigenvalues --   -0.43294  -0.43052  -0.42953  -0.41831  -0.41171
 Alpha  occ. eigenvalues --   -0.40427  -0.40393  -0.39330  -0.39179  -0.38727
 Alpha  occ. eigenvalues --   -0.38647  -0.38267  -0.37848  -0.37698  -0.37534
 Alpha  occ. eigenvalues --   -0.37527  -0.37060  -0.36943  -0.36755  -0.36663
 Alpha  occ. eigenvalues --   -0.36071  -0.35846  -0.35714  -0.35378  -0.34962
 Alpha  occ. eigenvalues --   -0.33041  -0.32791  -0.32258  -0.31566  -0.31557
 Alpha  occ. eigenvalues --   -0.29826  -0.29765  -0.28409  -0.28333  -0.27981
 Alpha  occ. eigenvalues --   -0.27917  -0.27634  -0.27543  -0.27403  -0.27293
 Alpha  occ. eigenvalues --   -0.26712  -0.26297  -0.26133  -0.25296  -0.24741
 Alpha  occ. eigenvalues --   -0.24100  -0.23110  -0.22522  -0.22495
 Alpha virt. eigenvalues --   -0.09091  -0.06928  -0.05649  -0.04760  -0.04433
 Alpha virt. eigenvalues --   -0.03902  -0.03551  -0.02885  -0.02689  -0.02197
 Alpha virt. eigenvalues --   -0.01903  -0.01443  -0.01304  -0.01222  -0.00773

 Mulliken charges:
               1
     1  P    0.967899
     2  Pd  -0.908994
     3  P    0.915530
     4  Cl  -0.259407
     5  Cl  -0.259817
     6  C    0.400276
     7  C    0.696226
     8  C    1.016161
     9  C    0.224143
    10  C   -0.788217
    11  C   -0.283929
    12  C   -0.315727
    13  C   -0.599085
    14  C   -0.627790
    15  C    0.255154
    16  C    0.767615
    17  C   -0.327522
    18  C   -0.563443
    19  C   -0.063388
    20  C   -0.857479
    21  C   -0.414768
    22  C    0.406297
    23  C    0.770913
    24  C   -0.577898
    25  C    0.554876
    26  C    0.017129
    27  C    0.022418
    28  C   -0.784064
    29  C   -0.570982
    30  C    0.560146
    31  C   -0.436709
    32  C   -0.176250
    33  C   -0.328751
    34  C   -0.442269
    35  C   -0.165510
    36  C   -0.215557
    37  C   -0.221231
    38  C    0.771827
    39  C    1.011747
    40  C   -0.340519
    41  C   -0.293434
    42  C   -0.610238
    43  C   -0.606036
    44  C   -0.080217
    45  C   -0.575061
    46  C   -0.405499
    47  C   -0.863677
    48  C    0.022760
    49  C    0.029964
    50  H    0.205697
    51  H    0.165053
    52  H    0.161255
    53  H    0.192739
    54  H    0.221288
    55  H    0.121563
    56  H    0.108311
    57  H    0.115954
    58  H    0.122023
    59  H    0.125855
    60  H    0.159664
    61  H    0.111467
    62  H    0.117857
    63  H    0.206029
    64  H    0.159957
    65  H    0.113249
    66  H    0.116019
    67  H    0.121190
    68  H    0.113201
    69  H    0.116036
    70  H    0.118295
    71  H    0.118361
    72  H    0.161222
    73  H    0.165306
    74  H    0.219608
    75  H    0.193482
    76  H    0.115692
    77  H    0.108283
    78  H    0.126200
    79  H    0.122220
    80  H    0.111397
    81  H    0.117915
 Sum of Mulliken charges =  -0.00000

 Dipole moment (field-independent basis, Debye):
    X=             -0.5306    Y=             13.1685    Z=              0.0884  Tot=             13.1795
 Quadrupole moment (field-independent basis, Debye-Ang):
   XX=           -298.2083   YY=           -355.5785   ZZ=           -277.7903
   XY=              2.1473   XZ=              3.8549   YZ=             -0.3776

 Normal termination of Gaussian 16 at Tue Nov  8 16:32:00 2022.
