 Gaussian 16, Revision C.01,
 Gaussian 16:  AS64L-G16RevC.01  3-Jul-2019

 ------------------------------------------------------------------
 # wb97xd/genecp pop=(nbo6read,savenbos) scrf=(solvent=toluene,smd)
 ------------------------------------------------------------------

 -----------
 az_pp02_NBO
 -----------
 Symbolic Z-matrix:
 Charge =  0 Multiplicity = 1

                         Standard orientation:
 ---------------------------------------------------------------------
 Center     Atomic      Atomic             Coordinates (Angstroms)
 Number     Number       Type             X           Y           Z
 ---------------------------------------------------------------------
      1         15           0       -1.627933   -0.714127   -0.249100
      2         46           0        0.089108   -2.235772   -0.013457
      3         15           0        1.676885   -0.585214    0.249237
      4         17           0       -1.523562   -3.976556    0.313677
      5         17           0        1.847927   -3.821958   -0.366352
      6          6           0       -1.077088    0.740414   -1.246103
      7          6           0       -2.991991   -1.432062   -1.229029
      8          6           0       -2.340323   -0.081258    1.294799
      9          6           0       -0.247840    1.713177   -0.717272
     10          6           0       -1.382071    0.761831   -2.631588
     11          6           0       -4.330257   -1.181813   -0.938626
     12          6           0       -2.666027   -2.255544   -2.310401
     13          6           0       -3.200463    1.018349    1.300325
     14          6           0       -2.014915   -0.712994    2.493843
     15          6           0        0.113379    1.723145    0.732141
     16          6           0        0.287305    2.736686   -1.560640
     17          6           0       -0.850555    1.709854   -3.455608
     18          6           0       -5.330464   -1.733003   -1.732758
     19          6           0       -3.664977   -2.795542   -3.104274
     20          6           0       -3.730303    1.479022    2.496083
     21          6           0       -2.541986   -0.243230    3.689845
     22          6           0        1.013817    0.813460    1.256880
     23          6           0       -0.497679    2.699031    1.580235
     24          6           0        1.127073    3.768114   -1.061526
     25          6           0        0.001751    2.716708   -2.949275
     26          6           0       -5.000907   -2.532845   -2.817603
     27          6           0       -3.397224    0.851490    3.691557
     28          6           0        1.314805    0.849886    2.642838
     29          6           0       -1.410580    3.668526    1.085376
     30          6           0       -0.213456    2.692377    2.969204
     31          6           0        1.649950    4.715307   -1.898034
     32          6           0        0.570421    3.702304   -3.794704
     33          6           0        0.711536    1.749733    3.471395
     34          6           0       -2.003137    4.569687    1.926324
     35          6           0       -0.854638    3.628144    3.819335
     36          6           0        1.375471    4.681269   -3.282537
     37          6           0       -1.728798    4.548119    3.311160
     38          6           0        3.085977   -1.215035    1.226087
     39          6           0        2.343347    0.118257   -1.284538
     40          6           0        2.813909   -2.054464    2.310239
     41          6           0        4.406563   -0.896423    0.922846
     42          6           0        2.049642   -0.507308   -2.494992
     43          6           0        3.132053    1.270241   -1.271585
     44          6           0        3.846564   -2.541455    3.094809
     45          6           0        5.441434   -1.394588    1.707755
     46          6           0        2.536895    0.020243   -3.683691
     47          6           0        3.623448    1.788177   -2.460245
     48          6           0        5.164360   -2.209710    2.795737
     49          6           0        3.321383    1.166604   -3.666967
     50          1           0       -2.044674    0.017004   -3.050992
     51          1           0       -4.608495   -0.580322   -0.081986
     52          1           0       -1.628695   -2.495004   -2.520401
     53          1           0       -3.436453    1.531535    0.373701
     54          1           0       -1.352264   -1.571920    2.489153
     55          1           0       -1.085812    1.699151   -4.515232
     56          1           0       -6.370533   -1.541309   -1.491505
     57          1           0       -3.399745   -3.440345   -3.934827
     58          1           0       -4.387704    2.341223    2.496527
     59          1           0       -2.281462   -0.735497    4.620349
     60          1           0        1.362432    3.801458   -0.004951
     61          1           0       -5.783434   -2.966600   -3.431269
     62          1           0       -3.803982    1.220604    4.627095
     63          1           0        2.031770    0.155406    3.058996
     64          1           0       -1.646235    3.690494    0.028551
     65          1           0        2.288095    5.495300   -1.496279
     66          1           0        0.350751    3.667279   -4.857342
     67          1           0        0.945293    1.750464    4.531399
     68          1           0       -2.696406    5.302938    1.527828
     69          1           0       -0.633863    3.603247    4.882004
     70          1           0        1.803869    5.434038   -3.935804
     71          1           0       -2.211998    5.263948    3.967678
     72          1           0        1.792947   -2.350262    2.528036
     73          1           0        4.645275   -0.283107    0.062760
     74          1           0        1.441114   -1.405267   -2.505007
     75          1           0        3.342519    1.777796   -0.335711
     76          1           0        3.622836   -3.199626    3.927098
     77          1           0        6.467818   -1.150026    1.456058
     78          1           0        2.300356   -0.467272   -4.623069
     79          1           0        4.225488    2.689770   -2.446227
     80          1           0        5.974122   -2.602348    3.401661
     81          1           0        3.697190    1.580335   -4.596752
 ---------------------------------------------------------------------

 SCF Done:  E(RwB97XD) =  -3425.81154702     A.U. after   19 cycles

 The electronic state is 1-A.
 Alpha  occ. eigenvalues -- -101.62720-101.62710 -77.27012 -77.26999 -10.32496
 Alpha  occ. eigenvalues --  -10.32468 -10.32229 -10.32227 -10.31325 -10.31324
 Alpha  occ. eigenvalues --  -10.31132 -10.31129 -10.31082 -10.31081 -10.30854
 Alpha  occ. eigenvalues --  -10.30853 -10.30251 -10.30248 -10.30187 -10.30181
 Alpha  occ. eigenvalues --  -10.30093 -10.30088 -10.29944 -10.29939 -10.29904
 Alpha  occ. eigenvalues --  -10.29897 -10.29839 -10.29832 -10.29786 -10.29775
 Alpha  occ. eigenvalues --  -10.29720 -10.29720 -10.29720 -10.29709 -10.29646
 Alpha  occ. eigenvalues --  -10.29620 -10.29533 -10.29530 -10.29490 -10.29488
 Alpha  occ. eigenvalues --  -10.29328 -10.29324 -10.29210 -10.29187 -10.29012
 Alpha  occ. eigenvalues --  -10.28989 -10.28908 -10.28899  -9.49509  -9.49498
 Alpha  occ. eigenvalues --   -7.24124  -7.24111  -7.23643  -7.23633  -7.23586
 Alpha  occ. eigenvalues --   -7.23575  -6.72215  -6.72201  -4.86886  -4.86873
 Alpha  occ. eigenvalues --   -4.86861  -4.86847  -4.86670  -4.86655  -3.48161
 Alpha  occ. eigenvalues --   -2.20720  -2.20640  -2.17239  -1.01202  -0.99240
 Alpha  occ. eigenvalues --   -0.97730  -0.97659  -0.96852  -0.96824  -0.95277
 Alpha  occ. eigenvalues --   -0.94148  -0.91378  -0.88956  -0.88930  -0.87594
 Alpha  occ. eigenvalues --   -0.86051  -0.86001  -0.85960  -0.85896  -0.85515
 Alpha  occ. eigenvalues --   -0.85347  -0.85283  -0.85267  -0.84666  -0.82576
 Alpha  occ. eigenvalues --   -0.81880  -0.81169  -0.77996  -0.77035  -0.74254
 Alpha  occ. eigenvalues --   -0.72976  -0.72385  -0.71873  -0.71829  -0.71399
 Alpha  occ. eigenvalues --   -0.71226  -0.70758  -0.70712  -0.70099  -0.70060
 Alpha  occ. eigenvalues --   -0.67990  -0.67196  -0.66828  -0.63171  -0.62403
 Alpha  occ. eigenvalues --   -0.62356  -0.61802  -0.61572  -0.60716  -0.60681
 Alpha  occ. eigenvalues --   -0.59612  -0.58493  -0.58315  -0.55875  -0.55670
 Alpha  occ. eigenvalues --   -0.55510  -0.55175  -0.55078  -0.54947  -0.54731
 Alpha  occ. eigenvalues --   -0.54481  -0.54456  -0.54019  -0.53979  -0.53170
 Alpha  occ. eigenvalues --   -0.52232  -0.52133  -0.52115  -0.51898  -0.51784
 Alpha  occ. eigenvalues --   -0.51407  -0.51337  -0.51120  -0.50887  -0.50245
 Alpha  occ. eigenvalues --   -0.50065  -0.49778  -0.49597  -0.48394  -0.47819
 Alpha  occ. eigenvalues --   -0.47559  -0.47369  -0.46138  -0.45970  -0.45673
 Alpha  occ. eigenvalues --   -0.45357  -0.44932  -0.44386  -0.44200  -0.44039
 Alpha  occ. eigenvalues --   -0.43737  -0.43663  -0.43492  -0.43341  -0.43278
 Alpha  occ. eigenvalues --   -0.42703  -0.42561  -0.42220  -0.41904  -0.41292
 Alpha  occ. eigenvalues --   -0.40393  -0.39283  -0.39274  -0.38971  -0.38402
 Alpha  occ. eigenvalues --   -0.36896  -0.36592  -0.34346  -0.34294  -0.34171
 Alpha  occ. eigenvalues --   -0.34016  -0.33881  -0.33761  -0.33515  -0.33405
 Alpha  occ. eigenvalues --   -0.33283  -0.32697  -0.32580  -0.31902  -0.31035
 Alpha  occ. eigenvalues --   -0.30689  -0.30647  -0.30234  -0.29730
 Alpha virt. eigenvalues --   -0.03425   0.00061   0.00690   0.02258   0.02597
 Alpha virt. eigenvalues --    0.03209   0.03471   0.04222   0.04738   0.05198
 Alpha virt. eigenvalues --    0.05239   0.05798   0.05817   0.07195   0.08062

 Mulliken charges:
               1
     1  P    0.868321
     2  Pd  -0.282032
     3  P    0.867808
     4  Cl  -0.450314
     5  Cl  -0.447453
     6  C   -0.250364
     7  C   -0.250682
     8  C   -0.257342
     9  C   -0.048990
    10  C   -0.241504
    11  C   -0.213024
    12  C   -0.213017
    13  C   -0.239942
    14  C   -0.188607
    15  C   -0.046526
    16  C    0.072197
    17  C   -0.208134
    18  C   -0.213746
    19  C   -0.206722
    20  C   -0.187971
    21  C   -0.218286
    22  C   -0.250806
    23  C    0.071371
    24  C   -0.262516
    25  C    0.061065
    26  C   -0.207159
    27  C   -0.203314
    28  C   -0.242198
    29  C   -0.263820
    30  C    0.060922
    31  C   -0.215301
    32  C   -0.225106
    33  C   -0.207250
    34  C   -0.215058
    35  C   -0.224359
    36  C   -0.217008
    37  C   -0.217714
    38  C   -0.250145
    39  C   -0.259652
    40  C   -0.213389
    41  C   -0.212729
    42  C   -0.186896
    43  C   -0.237353
    44  C   -0.206392
    45  C   -0.213273
    46  C   -0.219052
    47  C   -0.187842
    48  C   -0.207099
    49  C   -0.203029
    50  H    0.256830
    51  H    0.252213
    52  H    0.279726
    53  H    0.250169
    54  H    0.282522
    55  H    0.228434
    56  H    0.227372
    57  H    0.231621
    58  H    0.228260
    59  H    0.228813
    60  H    0.253879
    61  H    0.229051
    62  H    0.227092
    63  H    0.257046
    64  H    0.254206
    65  H    0.225587
    66  H    0.228491
    67  H    0.228507
    68  H    0.225800
    69  H    0.228641
    70  H    0.226748
    71  H    0.226816
    72  H    0.277760
    73  H    0.251976
    74  H    0.282750
    75  H    0.249631
    76  H    0.231388
    77  H    0.227357
    78  H    0.228606
    79  H    0.228122
    80  H    0.228951
    81  H    0.227066
 Sum of Mulliken charges =  -0.00000

 Dipole moment (field-independent basis, Debye):
    X=             -0.7039    Y=             17.3150    Z=              0.1194  Tot=             17.3298
 Quadrupole moment (field-independent basis, Debye-Ang):
   XX=           -291.4484   YY=           -364.9599   ZZ=           -267.2994
   XY=              2.7600   XZ=              5.1555   YZ=             -0.4456

 Summary of Natural Population Analysis:

                                     Natural Population
             Natural    ---------------------------------------------
  Atom No    Charge        Core      Valence    Rydberg      Total
 --------------------------------------------------------------------
    P  1    1.11863      9.99996     3.80611    0.07529    13.88137
   Pd  2    0.43299     35.99957     9.53300    0.03444    45.56701
    P  3    1.12050      9.99996     3.80407    0.07547    13.87950
   Cl  4   -0.64224      9.99998     7.63631    0.00595    17.64224
   Cl  5   -0.64063      9.99998     7.63463    0.00601    17.64063
    C  6   -0.33737      1.99999     4.31041    0.02697     6.33737
    C  7   -0.35851      1.99999     4.33200    0.02653     6.35851
    C  8   -0.38310      1.99999     4.35666    0.02645     6.38310
    C  9   -0.02309      1.99999     4.00206    0.02104     6.02309
    C 10   -0.20332      1.99999     4.18406    0.01927     6.20332
    C 11   -0.19163      1.99999     4.17244    0.01920     6.19163
    C 12   -0.18263      1.99999     4.16366    0.01898     6.18263
    C 13   -0.20020      1.99999     4.17940    0.02080     6.20020
    C 14   -0.17202      1.99999     4.15212    0.01991     6.17202
    C 15   -0.02268      1.99999     4.00166    0.02103     6.02268
    C 16   -0.04191      1.99999     4.02481    0.01711     6.04191
    C 17   -0.15959      1.99999     4.14241    0.01719     6.15959
    C 18   -0.19955      1.99999     4.18282    0.01673     6.19955
    C 19   -0.19840      1.99999     4.18111    0.01729     6.19840
    C 20   -0.19963      1.99999     4.18152    0.01812     6.19963
    C 21   -0.19918      1.99999     4.18215    0.01704     6.19918
    C 22   -0.33786      1.99999     4.31086    0.02701     6.33786
    C 23   -0.04182      1.99999     4.02475    0.01708     6.04182
    C 24   -0.18647      1.99999     4.16979    0.01669     6.18647
    C 25   -0.04585      1.99999     4.02993    0.01593     6.04585
    C 26   -0.18405      1.99999     4.16750    0.01656     6.18405
    C 27   -0.18080      1.99999     4.16396    0.01685     6.18080
    C 28   -0.20335      1.99999     4.18411    0.01925     6.20335
    C 29   -0.18678      1.99999     4.17012    0.01667     6.18678
    C 30   -0.04571      1.99999     4.02983    0.01590     6.04571
    C 31   -0.19709      1.99999     4.17993    0.01717     6.19709
    C 32   -0.18004      1.99999     4.16300    0.01706     6.18004
    C 33   -0.15925      1.99999     4.14208    0.01718     6.15925
    C 34   -0.19731      1.99999     4.18014    0.01718     6.19731
    C 35   -0.17986      1.99999     4.16282    0.01705     6.17986
    C 36   -0.19565      1.99999     4.17885    0.01681     6.19565
    C 37   -0.19574      1.99999     4.17896    0.01680     6.19574
    C 38   -0.35805      1.99999     4.33155    0.02651     6.35805
    C 39   -0.38375      1.99999     4.35730    0.02646     6.38375
    C 40   -0.18361      1.99999     4.16465    0.01897     6.18361
    C 41   -0.19133      1.99999     4.17213    0.01921     6.19133
    C 42   -0.17174      1.99999     4.15173    0.02002     6.17174
    C 43   -0.19939      1.99999     4.17868    0.02072     6.19939
    C 44   -0.19802      1.99999     4.18074    0.01729     6.19802
    C 45   -0.19904      1.99999     4.18232    0.01673     6.19904
    C 46   -0.19941      1.99999     4.18234    0.01707     6.19941
    C 47   -0.19935      1.99999     4.18125    0.01812     6.19935
    C 48   -0.18404      1.99999     4.16749    0.01656     6.18404
    C 49   -0.18093      1.99999     4.16405    0.01689     6.18093
    H 50    0.23096      0.00000     0.76660    0.00244     0.76904
    H 51    0.22190      0.00000     0.77574    0.00236     0.77810
    H 52    0.22787      0.00000     0.77048    0.00165     0.77213
    H 53    0.22286      0.00000     0.77477    0.00237     0.77714
    H 54    0.23239      0.00000     0.76570    0.00190     0.76761
    H 55    0.21858      0.00000     0.77983    0.00159     0.78142
    H 56    0.21505      0.00000     0.78364    0.00131     0.78495
    H 57    0.21877      0.00000     0.77992    0.00131     0.78123
    H 58    0.21845      0.00000     0.78018    0.00138     0.78155
    H 59    0.21806      0.00000     0.78065    0.00128     0.78194
    H 60    0.22496      0.00000     0.77308    0.00196     0.77504
    H 61    0.21454      0.00000     0.78421    0.00125     0.78546
    H 62    0.21480      0.00000     0.78394    0.00126     0.78520
    H 63    0.23094      0.00000     0.76663    0.00243     0.76906
    H 64    0.22499      0.00000     0.77305    0.00196     0.77501
    H 65    0.21531      0.00000     0.78343    0.00125     0.78469
    H 66    0.21554      0.00000     0.78291    0.00155     0.78446
    H 67    0.21853      0.00000     0.77988    0.00159     0.78147
    H 68    0.21542      0.00000     0.78333    0.00125     0.78458
    H 69    0.21562      0.00000     0.78283    0.00155     0.78438
    H 70    0.21546      0.00000     0.78330    0.00125     0.78454
    H 71    0.21550      0.00000     0.78325    0.00125     0.78450
    H 72    0.22695      0.00000     0.77142    0.00164     0.77305
    H 73    0.22211      0.00000     0.77555    0.00234     0.77789
    H 74    0.23229      0.00000     0.76580    0.00191     0.76771
    H 75    0.22252      0.00000     0.77510    0.00238     0.77748
    H 76    0.21863      0.00000     0.78006    0.00131     0.78137
    H 77    0.21501      0.00000     0.78368    0.00131     0.78499
    H 78    0.21812      0.00000     0.78060    0.00128     0.78188
    H 79    0.21831      0.00000     0.78032    0.00137     0.78169
    H 80    0.21451      0.00000     0.78424    0.00125     0.78549
    H 81    0.21489      0.00000     0.78386    0.00126     0.78511
 ====================================================================
 * Total *  0.00000    163.99900   240.91223    1.08878   406.00000

 Normal termination of Gaussian 16 at Sun May  1 10:15:00 2022.
