 Gaussian 16, Revision C.01,
 Gaussian 16:  AS64L-G16RevC.01  3-Jul-2019

 ---------------------------------
 # nmr=GIAO mpw1pw91/6-311+G(2d,p)
 ---------------------------------

 ---------------
 mol1-Cl_NBO_NMR
 ---------------
 Symbolic Z-matrix:
 Charge =  0 Multiplicity = 1

                         Standard orientation:
 ---------------------------------------------------------------------
 Center     Atomic      Atomic             Coordinates (Angstroms)
 Number     Number       Type             X           Y           Z
 ---------------------------------------------------------------------
      1          6           0       -0.899369   -1.142782    0.158198
      2          6           0       -2.279699   -1.190672    0.167956
      3          6           0       -2.972209   -0.000022    0.000002
      4          6           0       -2.279648    1.190602   -0.167926
      5          6           0       -0.899322    1.142654   -0.158133
      6          7           0       -0.217268   -0.000077    0.000045
      7          1           0       -0.311998   -2.046088    0.279644
      8          1           0       -2.793923   -2.132938    0.302386
      9          1           0       -2.793830    2.132890   -0.302372
     10          1           0       -0.311911    2.045937   -0.279559
     11         17           0       -4.704405    0.000012   -0.000034
     12         30           0        1.814150    0.000001    0.000009
     13         17           0        2.625527   -2.044697   -0.100743
     14         17           0        2.625321    2.044802    0.100702
 ---------------------------------------------------------------------

 SCF Done:  E(RmPW1PW91) =  -3407.97823246     A.U. after   13 cycles

      1  C    Isotropic =    32.1843   Anisotropy =   178.7619

      2  C    Isotropic =    57.2840   Anisotropy =   155.2963

      3  C    Isotropic =    24.4286   Anisotropy =   160.3564

      4  C    Isotropic =    57.2838   Anisotropy =   155.2963

      5  C    Isotropic =    32.1825   Anisotropy =   178.7639

      6  N    Isotropic =    -6.0890   Anisotropy =   417.8617

      7  H    Isotropic =    22.6177   Anisotropy =    12.9406

      8  H    Isotropic =    23.9462   Anisotropy =     8.3279

      9  H    Isotropic =    23.9461   Anisotropy =     8.3281

     10  H    Isotropic =    22.6173   Anisotropy =    12.9425

     11  Cl   Isotropic =   651.7977   Anisotropy =   417.3165

     12  Zn   Isotropic =  1560.7758   Anisotropy =   616.2825

     13  Cl   Isotropic =  1037.9569   Anisotropy =    95.7980

     14  Cl   Isotropic =  1037.9537   Anisotropy =    95.8075

 The electronic state is 1-A.
 Alpha  occ. eigenvalues -- -347.67744-101.82116-101.71445-101.71445 -42.34553
 Alpha  occ. eigenvalues --  -37.31869 -37.31490 -37.31437 -14.48780 -10.37453
 Alpha  occ. eigenvalues --  -10.34008 -10.34007 -10.30898 -10.30897  -9.59660
 Alpha  occ. eigenvalues --   -9.48930  -9.48930  -7.33693  -7.32760  -7.32680
 Alpha  occ. eigenvalues --   -7.22613  -7.22613  -7.22205  -7.22205  -7.22179
 Alpha  occ. eigenvalues --   -7.22179  -4.90791  -3.29157  -3.28524  -3.28467
 Alpha  occ. eigenvalues --   -1.05671  -0.96481  -0.86483  -0.86103  -0.78978
 Alpha  occ. eigenvalues --   -0.78348  -0.72987  -0.70122  -0.61252  -0.58546
 Alpha  occ. eigenvalues --   -0.55253  -0.54625  -0.54606  -0.54517  -0.54381
 Alpha  occ. eigenvalues --   -0.54040  -0.51145  -0.49640  -0.49575  -0.45262
 Alpha  occ. eigenvalues --   -0.43142  -0.41058  -0.37840  -0.34914  -0.34381
 Alpha  occ. eigenvalues --   -0.34244  -0.33412  -0.30677  -0.30011  -0.29600
 Alpha  occ. eigenvalues --   -0.29504
 Alpha virt. eigenvalues --   -0.10157  -0.07695  -0.03193  -0.01622  -0.00432
 Alpha virt. eigenvalues --    0.00334   0.00622   0.02436   0.02753   0.03926
 Alpha virt. eigenvalues --    0.04423   0.04909   0.05628   0.06171   0.07255

 Mulliken charges:
               1
     1  C   -0.327821
     2  C   -0.462067
     3  C    0.733161
     4  C   -0.461892
     5  C   -0.327919
     6  N    0.128042
     7  H    0.188681
     8  H    0.159972
     9  H    0.159972
    10  H    0.188687
    11  Cl   0.134905
    12  Zn   0.726473
    13  Cl  -0.420078
    14  Cl  -0.420117
 Sum of Mulliken charges =  -0.00000

 Dipole moment (field-independent basis, Debye):
    X=             -8.4151    Y=             -0.0003    Z=              0.0001  Tot=              8.4151
 Quadrupole moment (field-independent basis, Debye-Ang):
   XX=            -98.4167   YY=            -91.2362   ZZ=            -87.2833
   XY=              0.0004   XZ=              0.0003   YZ=             -2.3877

 Normal termination of Gaussian 16 at Tue Nov  8 11:34:58 2022.
