 Gaussian 16, Revision C.01,
 Gaussian 16:  ES64L-G16RevC.01  3-Jul-2019

 ---------------------------------------------------------------------
 # wb97xd/6-311g(d) pop=(nbo6read,savenbos) scrf=(solvent=toluene,smd)
 ---------------------------------------------------------------------

 -----------
 ar06_Cl_NBO
 -----------
 Symbolic Z-matrix:
 Charge =  0 Multiplicity = 1

                         Standard orientation:
 ---------------------------------------------------------------------
 Center     Atomic      Atomic             Coordinates (Angstroms)
 Number     Number       Type             X           Y           Z
 ---------------------------------------------------------------------
      1          6           0       -0.899369   -1.142782    0.158198
      2          6           0       -2.279699   -1.190672    0.167956
      3          6           0       -2.972209   -0.000022    0.000002
      4          6           0       -2.279648    1.190602   -0.167926
      5          6           0       -0.899322    1.142654   -0.158133
      6          7           0       -0.217268   -0.000077    0.000045
      7          1           0       -0.311998   -2.046088    0.279644
      8          1           0       -2.793923   -2.132938    0.302386
      9          1           0       -2.793830    2.132890   -0.302372
     10          1           0       -0.311911    2.045937   -0.279559
     11         17           0       -4.704405    0.000012   -0.000034
     12         30           0        1.814150    0.000001    0.000009
     13         17           0        2.625527   -2.044697   -0.100743
     14         17           0        2.625321    2.044802    0.100702
 ---------------------------------------------------------------------

 SCF Done:  E(RwB97XD) =  -3407.74554822     A.U. after   16 cycles

 The electronic state is 1-A.
 Alpha  occ. eigenvalues -- -347.50314-101.76058-101.67114-101.67114 -42.35057
 Alpha  occ. eigenvalues --  -37.33392 -37.33068 -37.33026 -14.51025 -10.40820
 Alpha  occ. eigenvalues --  -10.37551 -10.37550 -10.34107 -10.34106  -9.62919
 Alpha  occ. eigenvalues --   -9.53942  -9.53939  -7.37847  -7.36873  -7.36806
 Alpha  occ. eigenvalues --   -7.28509  -7.28509  -7.28071  -7.28071  -7.28065
 Alpha  occ. eigenvalues --   -7.28065  -4.95689  -3.34703  -3.34374  -3.34164
 Alpha  occ. eigenvalues --   -1.11689  -1.02598  -0.92498  -0.92086  -0.87380
 Alpha  occ. eigenvalues --   -0.86624  -0.78889  -0.75931  -0.67348  -0.64231
 Alpha  occ. eigenvalues --   -0.62157  -0.61738  -0.61659  -0.61585  -0.61297
 Alpha  occ. eigenvalues --   -0.60131  -0.56758  -0.55636  -0.55307  -0.50577
 Alpha  occ. eigenvalues --   -0.48737  -0.47474  -0.43353  -0.41686  -0.40033
 Alpha  occ. eigenvalues --   -0.39195  -0.39164  -0.37980  -0.37473  -0.37229
 Alpha  occ. eigenvalues --   -0.36980
 Alpha virt. eigenvalues --   -0.01700   0.00984   0.04159   0.07455   0.14087
 Alpha virt. eigenvalues --    0.14384   0.16871   0.17481   0.18901   0.19956
 Alpha virt. eigenvalues --    0.23942   0.27187   0.30452   0.31063   0.32770

 Mulliken charges:
               1
     1  C    0.065139
     2  C   -0.250652
     3  C   -0.052346
     4  C   -0.250648
     5  C    0.065129
     6  N   -0.663707
     7  H    0.300475
     8  H    0.283784
     9  H    0.283784
    10  H    0.300484
    11  Cl  -0.003944
    12  Zn   1.406317
    13  Cl  -0.741908
    14  Cl  -0.741907
 Sum of Mulliken charges =  -0.00000

 Dipole moment (field-independent basis, Debye):
    X=             -9.8027    Y=             -0.0004    Z=              0.0002  Tot=              9.8027
 Quadrupole moment (field-independent basis, Debye-Ang):
   XX=           -107.9013   YY=           -100.4149   ZZ=            -88.0200
   XY=              0.0008   XZ=              0.0004   YZ=             -3.1224

 Summary of Natural Population Analysis:

                                     Natural Population
             Natural    ---------------------------------------------
  Atom No    Charge        Core      Valence    Rydberg      Total
 --------------------------------------------------------------------
    C  1    0.10739      1.99999     3.86538    0.02724     5.89261
    C  2   -0.26068      1.99999     4.24138    0.01931     6.26068
    C  3    0.03430      1.99999     3.94221    0.02351     5.96570
    C  4   -0.26068      1.99999     4.24138    0.01931     6.26068
    C  5    0.10738      1.99999     3.86539    0.02724     5.89262
    N  6   -0.66961      1.99999     5.64023    0.02939     7.66961
    H  7    0.23216      0.00000     0.76666    0.00118     0.76784
    H  8    0.25264      0.00000     0.74572    0.00164     0.74736
    H  9    0.25264      0.00000     0.74572    0.00164     0.74736
    H 10    0.23216      0.00000     0.76666    0.00118     0.76784
   Cl 11    0.03797      9.99998     6.94217    0.01987    16.96203
   Zn 12    1.56534     17.99996    10.41893    0.01576    28.43466
   Cl 13   -0.81551      9.99999     7.80518    0.01033    17.81551
   Cl 14   -0.81551      9.99999     7.80518    0.01033    17.81551
 ====================================================================
 * Total *  0.00000     59.99987    61.79220    0.20793   122.00000

 Normal termination of Gaussian 16 at Wed May  4 21:42:10 2022.
