 Gaussian 16, Revision C.01,
 Gaussian 16:  AS64L-G16RevC.01  3-Jul-2019

 ---------------------------------
 # nmr=GIAO mpw1pw91/6-311+G(2d,p)
 ---------------------------------

 ---------------
 mol2-Br_NBO_NMR
 ---------------
 Symbolic Z-matrix:
 Charge =  0 Multiplicity = 1

                         Standard orientation:
 ---------------------------------------------------------------------
 Center     Atomic      Atomic             Coordinates (Angstroms)
 Number     Number       Type             X           Y           Z
 ---------------------------------------------------------------------
      1         35           0       -2.090421   -0.262848    0.000353
      2          6           0       -0.243160    0.211049    0.000391
      3          6           0        0.113748    1.550998    0.005871
      4          6           0        1.466242    1.873517    0.002227
      5          6           0        2.430919    0.875815   -0.006582
      6          6           0        2.067264   -0.472308   -0.010567
      7          6           0        3.115428   -1.551206    0.008009
      8          6           0        0.711598   -0.796828   -0.008337
      9          1           0       -0.641094    2.328114    0.009971
     10          1           0        1.764317    2.916654    0.002638
     11          1           0        3.483018    1.143749   -0.012574
     12          1           0        3.532701   -1.669117    1.014775
     13          1           0        2.704055   -2.518172   -0.295510
     14          1           0        3.945507   -1.310552   -0.663777
     15          1           0        0.404011   -1.837215   -0.013935
 ---------------------------------------------------------------------

 SCF Done:  E(RmPW1PW91) =  -2845.27687138     A.U. after   13 cycles

      1  Br   Isotropic =  2038.0518   Anisotropy =  1366.4348

      2  C    Isotropic =    43.0757   Anisotropy =   118.9027

      3  C    Isotropic =    54.2890   Anisotropy =   154.4945

      4  C    Isotropic =    53.8200   Anisotropy =   178.4878

      5  C    Isotropic =    55.8847   Anisotropy =   169.9391

      6  C    Isotropic =    42.0964   Anisotropy =   193.7120

      7  C    Isotropic =   164.2963   Anisotropy =    39.2564

      8  C    Isotropic =    50.6261   Anisotropy =   135.7681

      9  H    Isotropic =    24.2529   Anisotropy =     9.0886

     10  H    Isotropic =    24.3331   Anisotropy =     4.9638

     11  H    Isotropic =    24.4422   Anisotropy =     6.6498

     12  H    Isotropic =    29.1927   Anisotropy =     8.5551

     13  H    Isotropic =    29.6766   Anisotropy =     7.1788

     14  H    Isotropic =    29.3764   Anisotropy =     8.2256

     15  H    Isotropic =    24.2110   Anisotropy =    11.3345

 The electronic state is 1-A.
 Alpha  occ. eigenvalues -- -483.30452 -62.64156 -56.42572 -56.42200 -56.42191
 Alpha  occ. eigenvalues --  -10.30011 -10.26152 -10.25111 -10.25025 -10.25000
 Alpha  occ. eigenvalues --  -10.24495 -10.23951  -8.77214  -6.58623  -6.57406
 Alpha  occ. eigenvalues --   -6.57382  -2.66881  -2.66515  -2.66502  -2.65511
 Alpha  occ. eigenvalues --   -2.65509  -0.91003  -0.83764  -0.80553  -0.75527
 Alpha  occ. eigenvalues --   -0.72149  -0.63552  -0.60921  -0.53803  -0.49989
 Alpha  occ. eigenvalues --   -0.47243  -0.44710  -0.44125  -0.43454  -0.41120
 Alpha  occ. eigenvalues --   -0.39803  -0.37290  -0.36473  -0.32769  -0.30372
 Alpha  occ. eigenvalues --   -0.27368  -0.25687
 Alpha virt. eigenvalues --   -0.02300  -0.01989  -0.00598   0.00533   0.01874
 Alpha virt. eigenvalues --    0.02106   0.04152   0.04216   0.04882   0.05387
 Alpha virt. eigenvalues --    0.06472   0.07169   0.07304   0.08219   0.08931

 Mulliken charges:
               1
     1  Br  -0.104893
     2  C    0.766174
     3  C   -0.499935
     4  C   -0.065201
     5  C   -0.451456
     6  C    0.996544
     7  C   -0.697087
     8  C   -0.911385
     9  H    0.136370
    10  H    0.112966
    11  H    0.107038
    12  H    0.175571
    13  H    0.148364
    14  H    0.156001
    15  H    0.130929
 Sum of Mulliken charges =  -0.00000

 Dipole moment (field-independent basis, Debye):
    X=              2.1903    Y=              0.1410    Z=              0.0295  Tot=              2.1950
 Quadrupole moment (field-independent basis, Debye-Ang):
   XX=            -55.4092   YY=            -54.3332   ZZ=            -63.3929
   XY=             -0.8333   XZ=              0.0585   YZ=             -0.0044

 Normal termination of Gaussian 16 at Tue Nov  8 11:34:17 2022.
