 Gaussian 16, Revision C.01,
 Gaussian 16:  AS64L-G16RevC.01  3-Jul-2019

 ---------------------------------
 # nmr=GIAO mpw1pw91/6-311+G(2d,p)
 ---------------------------------

 --------------
 mol3-N_NBO_NMR
 --------------
 Symbolic Z-matrix:
 Charge =  0 Multiplicity = 1

                         Standard orientation:
 ---------------------------------------------------------------------
 Center     Atomic      Atomic             Coordinates (Angstroms)
 Number     Number       Type             X           Y           Z
 ---------------------------------------------------------------------
      1          7           0       -1.757791   -0.609892   -0.065956
      2          6           0       -0.437869   -0.282213   -0.026696
      3          6           0        0.013089    1.047766   -0.024290
      4          6           0        1.376923    1.292706   -0.003811
      5          6           0        1.883764   -0.910420    0.019635
      6          6           0        0.554611   -1.279934   -0.002050
      7          1           0       -0.679644    1.880496   -0.038742
      8          1           0        1.730151    2.321623   -0.003034
      9          1           0        2.652468   -1.679570    0.039437
     10          1           0        0.280221   -2.330544   -0.002465
     11          1           0       -1.992532   -1.576570    0.078529
     12          6           0       -2.822014    0.357764    0.045528
     13          1           0       -3.776003   -0.168213    0.015967
     14          1           0       -2.772669    0.927953    0.981688
     15          1           0       -2.805298    1.064141   -0.790402
     16          7           0        2.322402    0.353702    0.018689
 ---------------------------------------------------------------------

 SCF Done:  E(RmPW1PW91) =  -342.966057656     A.U. after   13 cycles

      1  N    Isotropic =   187.6657   Anisotropy =    83.0731

      2  C    Isotropic =    31.1998   Anisotropy =   184.5959

      3  C    Isotropic =    81.7704   Anisotropy =   143.3854

      4  C    Isotropic =    30.6773   Anisotropy =   169.7699

      5  C    Isotropic =    31.9426   Anisotropy =   167.3969

      6  C    Isotropic =    76.6498   Anisotropy =   127.5846

      7  H    Isotropic =    25.3533   Anisotropy =     7.9063

      8  H    Isotropic =    23.1674   Anisotropy =     6.7636

      9  H    Isotropic =    23.3097   Anisotropy =     6.3487

     10  H    Isotropic =    25.3742   Anisotropy =     6.7220

     11  H    Isotropic =    28.3622   Anisotropy =    11.2382

     12  C    Isotropic =   157.9371   Anisotropy =    42.0433

     13  H    Isotropic =    29.0649   Anisotropy =     8.6901

     14  H    Isotropic =    29.0890   Anisotropy =     9.2273

     15  H    Isotropic =    28.9673   Anisotropy =     8.9508

     16  N    Isotropic =   -50.4192   Anisotropy =   517.3971

 The electronic state is 1-A.
 Alpha  occ. eigenvalues --  -14.42443 -14.37050 -10.29331 -10.27718 -10.26067
 Alpha  occ. eigenvalues --  -10.26015 -10.23438 -10.23303  -0.98843  -0.95479
 Alpha  occ. eigenvalues --   -0.81615  -0.78103  -0.73020  -0.65471  -0.62987
 Alpha  occ. eigenvalues --   -0.56823  -0.52865  -0.48726  -0.47601  -0.46729
 Alpha  occ. eigenvalues --   -0.45611  -0.43634  -0.41757  -0.40987  -0.36617
 Alpha  occ. eigenvalues --   -0.34312  -0.27073  -0.26359  -0.23254
 Alpha virt. eigenvalues --   -0.00904  -0.00514  -0.00169   0.01096   0.02152
 Alpha virt. eigenvalues --    0.03913   0.04028   0.05004   0.05265   0.07248
 Alpha virt. eigenvalues --    0.07494   0.08444   0.08974   0.09117   0.10589

 Mulliken charges:
               1
     1  N   -0.323827
     2  C    0.268985
     3  C    0.424418
     4  C   -0.263409
     5  C   -0.063375
     6  C   -0.511384
     7  H    0.104686
     8  H    0.110883
     9  H    0.111157
    10  H    0.093206
    11  H    0.251317
    12  C   -0.336428
    13  H    0.148642
    14  H    0.156287
    15  H    0.154561
    16  N   -0.325721
 Sum of Mulliken charges =  -0.00000

 Dipole moment (field-independent basis, Debye):
    X=             -4.5267    Y=             -1.0584    Z=              0.2324  Tot=              4.6546
 Quadrupole moment (field-independent basis, Debye-Ang):
   XX=            -48.7935   YY=            -40.9242   ZZ=            -51.3539
   XY=             -0.9429   XZ=             -0.6203   YZ=             -0.5300

 Normal termination of Gaussian 16 at Tue Nov  8 11:34:09 2022.
