 Gaussian 16, Revision C.01,
 Gaussian 16:  AS64L-G16RevC.01  3-Jul-2019

 ---------------------------------
 # nmr=GIAO mpw1pw91/6-311+G(2d,p)
 ---------------------------------

 ----------
 am52_a_NMR
 ----------
 Symbolic Z-matrix:
 Charge =  0 Multiplicity = 1

                         Standard orientation:
 ---------------------------------------------------------------------
 Center     Atomic      Atomic             Coordinates (Angstroms)
 Number     Number       Type             X           Y           Z
 ---------------------------------------------------------------------
      1          8           0        2.339059    0.032322    0.031829
      2          6           0        1.120964    0.027501    0.008216
      3          7           0        0.387305    1.167518   -0.002824
      4          6           0       -1.058638    1.252551   -0.146270
      5          6           0       -1.695192   -0.043698    0.316851
      6          7           0       -1.036046   -1.135044   -0.381602
      7          6           0        0.341334   -1.276186    0.065888
      8          1           0        0.926090    2.016728   -0.081282
      9          1           0       -1.325575    1.434961   -1.193271
     10          1           0       -1.421526    2.091419    0.453252
     11          1           0       -1.607920   -0.126254    1.414655
     12          1           0       -2.756811   -0.036235    0.061478
     13          1           0        0.425169   -1.631720    1.108123
     14          1           0        0.869801   -1.991642   -0.565626
     15          1           0       -1.531321   -2.004166   -0.229093
 ---------------------------------------------------------------------

 SCF Done:  E(RmPW1PW91) =  -341.998151261     A.U. after   12 cycles

      1  O    Isotropic =   -59.3631   Anisotropy =   550.8368

      2  C    Isotropic =    18.4847   Anisotropy =   127.8931

      3  N    Isotropic =   138.1315   Anisotropy =   111.8431

      4  C    Isotropic =   142.4925   Anisotropy =    19.2587

      5  C    Isotropic =   141.7448   Anisotropy =    27.6469

      6  N    Isotropic =   216.7489   Anisotropy =    56.2667

      7  C    Isotropic =   134.0568   Anisotropy =    36.7477

      8  H    Isotropic =    27.2327   Anisotropy =     9.2642

      9  H    Isotropic =    28.3294   Anisotropy =     8.6313

     10  H    Isotropic =    28.8288   Anisotropy =     8.5654

     11  H    Isotropic =    28.8722   Anisotropy =     8.5491

     12  H    Isotropic =    28.9145   Anisotropy =     8.0991

     13  H    Isotropic =    28.3390   Anisotropy =     6.9239

     14  H    Isotropic =    28.3327   Anisotropy =     6.9713

     15  H    Isotropic =    31.1135   Anisotropy =    14.8519

 The electronic state is 1-A.
 Alpha  occ. eigenvalues --  -19.17487 -14.42156 -14.39718 -10.33266 -10.28250
 Alpha  occ. eigenvalues --  -10.27506 -10.26826  -1.06730  -0.97837  -0.93331
 Alpha  occ. eigenvalues --   -0.79345  -0.72051  -0.67140  -0.58688  -0.54023
 Alpha  occ. eigenvalues --   -0.51728  -0.50605  -0.47950  -0.46934  -0.43571
 Alpha  occ. eigenvalues --   -0.42665  -0.39613  -0.38406  -0.37002  -0.27762
 Alpha  occ. eigenvalues --   -0.26833  -0.25400
 Alpha virt. eigenvalues --   -0.00654   0.00948   0.02365   0.02433   0.02871
 Alpha virt. eigenvalues --    0.04879   0.05146   0.06227   0.06769   0.07482
 Alpha virt. eigenvalues --    0.09563   0.09700   0.10565   0.11189   0.11839

 Mulliken charges:
               1
     1  O   -0.500789
     2  C    0.411844
     3  N   -0.345629
     4  C   -0.183102
     5  C   -0.209021
     6  N   -0.321436
     7  C   -0.213111
     8  H    0.264304
     9  H    0.144871
    10  H    0.135633
    11  H    0.127351
    12  H    0.136604
    13  H    0.151768
    14  H    0.160703
    15  H    0.240012
 Sum of Mulliken charges =  -0.00000

 Dipole moment (field-independent basis, Debye):
    X=             -4.3889    Y=              0.4884    Z=              0.7094  Tot=              4.4726
 Quadrupole moment (field-independent basis, Debye-Ang):
   XX=            -50.2497   YY=            -34.3956   ZZ=            -43.9065
   XY=              0.8183   XZ=             -1.5845   YZ=             -1.3434

 Normal termination of Gaussian 16 at Tue Nov  8 11:54:42 2022.
