 Gaussian 16, Revision C.01,
 Gaussian 16:  AS64L-G16RevC.01  3-Jul-2019

 ---------------------------------------------------------------------
 # wb97xd/6-311g(d) pop=(nbo6read,savenbos) scrf=(solvent=toluene,smd)
 ---------------------------------------------------------------------

 ----------
 ar84Br_NBO
 ----------
 Symbolic Z-matrix:
 Charge =  0 Multiplicity = 1

                         Standard orientation:
 ---------------------------------------------------------------------
 Center     Atomic      Atomic             Coordinates (Angstroms)
 Number     Number       Type             X           Y           Z
 ---------------------------------------------------------------------
      1         35           0        2.905512   -0.245927    0.000000
      2          6           0        1.043825    0.158717    0.000000
      3          6           0        0.648865    1.514687    0.000000
      4          6           0       -0.683325    1.821761    0.000000
      5          6           0       -1.671908    0.805493    0.000000
      6          6           0       -3.058654    1.100220    0.000000
      7          6           0       -3.985840    0.094125    0.000000
      8          6           0       -3.571901   -1.257590    0.000000
      9          6           0       -2.240978   -1.574268    0.000000
     10          6           0       -1.256489   -0.553184    0.000000
     11          6           0        0.129490   -0.855316    0.000000
     12          1           0        1.395998    2.299245    0.000000
     13          1           0       -0.995862    2.861461    0.000000
     14          1           0       -3.373990    2.139316    0.000000
     15          1           0       -5.044657    0.330372    0.000001
     16          1           0       -4.317004   -2.046201    0.000000
     17          1           0       -1.921420   -2.611942    0.000000
     18          1           0        0.445513   -1.892679    0.000000
 ---------------------------------------------------------------------

 SCF Done:  E(RwB97XD) =  -2959.41542934     A.U. after   14 cycles

 The electronic state is 1-A.
 Alpha  occ. eigenvalues -- -483.10373 -62.65502 -56.45058 -56.44679 -56.44669
 Alpha  occ. eigenvalues --  -10.34884 -10.30762 -10.30495 -10.30142 -10.30120
 Alpha  occ. eigenvalues --  -10.29912 -10.29350 -10.29344 -10.29264 -10.29202
 Alpha  occ. eigenvalues --   -8.81403  -6.63721  -6.62420  -6.62401  -2.73735
 Alpha  occ. eigenvalues --   -2.73358  -2.73347  -2.72301  -2.72300  -0.99557
 Alpha  occ. eigenvalues --   -0.94971  -0.89943  -0.88089  -0.84123  -0.81886
 Alpha  occ. eigenvalues --   -0.73045  -0.70748  -0.70256  -0.61693  -0.60578
 Alpha  occ. eigenvalues --   -0.58537  -0.54492  -0.53945  -0.51424  -0.51215
 Alpha  occ. eigenvalues --   -0.50016  -0.48925  -0.46179  -0.44462  -0.42949
 Alpha  occ. eigenvalues --   -0.42178  -0.39048  -0.37393  -0.37141  -0.32092
 Alpha  occ. eigenvalues --   -0.29703
 Alpha virt. eigenvalues --    0.01361   0.04110   0.07122   0.08771   0.13402
 Alpha virt. eigenvalues --    0.14428   0.15832   0.16380   0.18203   0.18758
 Alpha virt. eigenvalues --    0.21223   0.22923   0.26328   0.28048   0.31676

 Mulliken charges:
               1
     1  Br  -0.034143
     2  C   -0.146761
     3  C   -0.186375
     4  C   -0.227909
     5  C    0.027696
     6  C   -0.227308
     7  C   -0.223511
     8  C   -0.222101
     9  C   -0.227721
    10  C    0.012134
    11  C   -0.179907
    12  H    0.244208
    13  H    0.234258
    14  H    0.228305
    15  H    0.226229
    16  H    0.226586
    17  H    0.228926
    18  H    0.247394
 Sum of Mulliken charges =  -0.00000

 Dipole moment (field-independent basis, Debye):
    X=             -2.3924    Y=              0.3953    Z=              0.0000  Tot=              2.4248
 Quadrupole moment (field-independent basis, Debye-Ang):
   XX=            -69.4167   YY=            -65.3603   ZZ=            -81.7890
   XY=              0.5962   XZ=             -0.0000   YZ=              0.0000

 Summary of Natural Population Analysis:

                                     Natural Population
             Natural    ---------------------------------------------
  Atom No    Charge        Core      Valence    Rydberg      Total
 --------------------------------------------------------------------
   Br  1    0.04563     27.99995     6.93450    0.01993    34.95437
    C  2   -0.08636      1.99999     4.06530    0.02107     6.08636
    C  3   -0.23470      1.99999     4.21430    0.02041     6.23470
    C  4   -0.16334      1.99999     4.14711    0.01624     6.16334
    C  5   -0.06443      1.99999     4.05021    0.01423     6.06443
    C  6   -0.18181      1.99999     4.16512    0.01670     6.18181
    C  7   -0.20322      1.99999     4.18660    0.01663     6.20322
    C  8   -0.19981      1.99999     4.18322    0.01660     6.19981
    C  9   -0.18427      1.99999     4.16771    0.01657     6.18427
    C 10   -0.04770      1.99999     4.03339    0.01432     6.04770
    C 11   -0.21434      1.99999     4.19368    0.02067     6.21434
    H 12    0.22876      0.00000     0.76954    0.00170     0.77124
    H 13    0.21875      0.00000     0.77972    0.00154     0.78125
    H 14    0.21416      0.00000     0.78427    0.00157     0.78584
    H 15    0.21455      0.00000     0.78419    0.00126     0.78545
    H 16    0.21472      0.00000     0.78403    0.00126     0.78528
    H 17    0.21482      0.00000     0.78365    0.00153     0.78518
    H 18    0.22860      0.00000     0.76931    0.00209     0.77140
 ====================================================================
 * Total *  0.00000     47.99985    53.79585    0.20431   102.00000

 Normal termination of Gaussian 16 at Thu Sep 22 17:37:44 2022.
